ITEM: TIMESTEP
0
ITEM: NUMBER OF ATOMS
3
ITEM: BOX BOUNDS pp pp pp
0 2
0 2
0 2
ITEM: ATOMS id type x y z
0 1 1.0 1.0 1.0
1 0 0.9422654566139127 0.91835 1.08165
2 0 0.9422654566139127 1.08165 0.91835
ITEM: TIMESTEP
1000
ITEM: NUMBER OF ATOMS
3
ITEM: BOX BOUNDS pp pp pp
0 2
0 2
0 2
ITEM: ATOMS id type x y z
0 1 1.0005005000414116 1.0 1.0
1 0 0.9427659565997576 0.91835 1.08165
2 0 0.9427659565997576 1.08165 0.91835
ITEM: TIMESTEP
2000
ITEM: NUMBER OF ATOMS
3
ITEM: BOX BOUNDS pp pp pp
0 2
0 2
0 2
ITEM: ATOMS id type x y z
0 1 1.0020010001655635 1.0 1.0
1 0 0.9442664565573206 0.91835 1.08165
2 0 0.9442664565573206 1.08165 0.91835
ITEM: TIMESTEP
3000
ITEM: NUMBER OF ATOMS
3
ITEM: BOX BOUNDS pp pp pp
0 2
0 2
0 2
ITEM: ATOMS id type x y z
0 1 1.0045015003724558 1.0 1.0
1 0 0.9467669564866016 0.91835 1.08165
2 0 0.9467669564866016 1.08165 0.91835
ITEM: TIMESTEP
4000
ITEM: NUMBER OF ATOMS
3
ITEM: BOX BOUNDS pp pp pp
0 2
0 2
0 2
ITEM: ATOMS id type x y z
0 1 1.0080020006620884 1.0 1.0
1 0 0.9502674563876007 0.91835 1.08165
2 0 0.9502674563876007 1.08165 0.91835
ITEM: TIMESTEP
5000
ITEM: NUMBER OF ATOMS
3
ITEM: BOX BOUNDS pp pp pp
0 2
0 2
0 2
ITEM: ATOMS id type x y z
0 1 1.0125025010344615 1.0 1.0
1 0 0.9547679562603179 0.91835 1.08165
2 0 0.9547679562603179 1.08165 0.91835
ITEM: TIMESTEP
6000
ITEM: NUMBER OF ATOMS
3
ITEM: BOX BOUNDS pp pp pp
0 2
0 2
0 2
ITEM: ATOMS id type x y z
0 1 1.018003001489575 1.0 1.0
1 0 0.9602684561047531 0.91835 1.08165
2 0 0.9602684561047531 1.08165 0.91835
ITEM: TIMESTEP
7000
ITEM: NUMBER OF ATOMS
3
ITEM: BOX BOUNDS pp pp pp
0 2
0 2
0 2
ITEM: ATOMS id type x y z
0 1 1.0245035020274287 1.0 1.0
1 0 0.9667689559209064 0.91835 1.08165
2 0 0.9667689559209064 1.08165 0.91835
ITEM: TIMESTEP
8000
ITEM: NUMBER OF ATOMS
3
ITEM: BOX BOUNDS pp pp pp
0 2
0 2
0 2
ITEM: ATOMS id type x y z
0 1 1.0320040026480228 1.0 1.0
1 0 0.9742694557087778 0.91835 1.08165
2 0 0.9742694557087778 1.08165 0.91835
ITEM: TIMESTEP
9000
ITEM: NUMBER OF ATOMS
3
ITEM: BOX BOUNDS pp pp pp
0 2
0 2
0 2
ITEM: ATOMS id type x y z
0 1 1.0405045033513574 1.0 1.0
1 0 0.9827699554683672 0.91835 1.08165
2 0 0.9827699554683672 1.08165 0.91835
ITEM: TIMESTEP
10000
ITEM: NUMBER OF ATOMS
3
ITEM: BOX BOUNDS pp pp pp
0 2
0 2
0 2
ITEM: ATOMS id type x y z
0 1 1.0500050041374323 1.0 1.0
1 0 0.9922704551996747 0.91835 1.08165
2 0 0.9922704551996747 1.08165 0.91835
ITEM: TIMESTEP
11000
ITEM: NUMBER OF ATOMS
3
ITEM: BOX BOUNDS pp pp pp
0 2
0 2
0 2
ITEM: ATOMS id type x y z
0 1 1.0605055050062475 1.0 1.0
1 0 1.0027709549062958 0.91835 1.08165
2 0 1.0027709549062958 1.08165 0.91835
ITEM: TIMESTEP
12000
ITEM: NUMBER OF ATOMS
3
ITEM: BOX BOUNDS pp pp pp
0 2
0 2
0 2
ITEM: ATOMS id type x y z
0 1 1.0720060059578032 1.0 1.0
1 0 1.0142714546648057 0.91835 1.08165
2 0 1.0142714546648057 1.08165 0.91835
ITEM: TIMESTEP
13000
ITEM: NUMBER OF ATOMS
3
ITEM: BOX BOUNDS pp pp pp
0 2
0 2
0 2
ITEM: ATOMS id type x y z
0 1 1.0845065069920992 1.0 1.0
1 0 1.026771954506056 0.91835 1.08165
2 0 1.026771954506056 1.08165 0.91835
ITEM: TIMESTEP
14000
ITEM: NUMBER OF ATOMS
3
ITEM: BOX BOUNDS pp pp pp
0 2
0 2
0 2
ITEM: ATOMS id type x y z
0 1 1.0980070081091355 1.0 1.0
1 0 1.0402724544300468 0.91835 1.08165
2 0 1.0402724544300468 1.08165 0.91835
ITEM: TIMESTEP
15000
ITEM: NUMBER OF ATOMS
3
ITEM: BOX BOUNDS pp pp pp
0 2
0 2
0 2
ITEM: ATOMS id type x y z
0 1 1.1125075093089123 1.0 1.0
1 0 1.0547729544367779 0.91835 1.08165
2 0 1.0547729544367779 1.08165 0.91835
ITEM: TIMESTEP
16000
ITEM: NUMBER OF ATOMS
3
ITEM: BOX BOUNDS pp pp pp
0 2
0 2
0 2
ITEM: ATOMS id type x y z
0 1 1.1280080105914294 1.0 1.0
1 0 1.0702734545262493 0.91835 1.08165
2 0 1.0702734545262493 1.08165 0.91835
ITEM: TIMESTEP
17000
ITEM: NUMBER OF ATOMS
3
ITEM: BOX BOUNDS pp pp pp
0 2
0 2
0 2
ITEM: ATOMS id type x y z
0 1 1.144508511956687 1.0 1.0
1 0 1.0867739546984612 0.91835 1.08165
2 0 1.0867739546984612 1.08165 0.91835
ITEM: TIMESTEP
18000
ITEM: NUMBER OF ATOMS
3
ITEM: BOX BOUNDS pp pp pp
0 2
0 2
0 2
ITEM: ATOMS id type x y z
0 1 1.1620090134046848 1.0 1.0
1 0 1.1042744549534134 0.91835 1.08165
2 0 1.1042744549534134 1.08165 0.91835
ITEM: TIMESTEP
19000
ITEM: NUMBER OF ATOMS
3
ITEM: BOX BOUNDS pp pp pp
0 2
0 2
0 2
ITEM: ATOMS id type x y z
0 1 1.180509514935423 1.0 1.0
1 0 1.122774955291106 0.91835 1.08165
2 0 1.122774955291106 1.08165 0.91835
ITEM: TIMESTEP
20000
ITEM: NUMBER OF ATOMS
3
ITEM: BOX BOUNDS pp pp pp
0 2
0 2
0 2
ITEM: ATOMS id type x y z
0 1 1.2000100165489016 1.0 1.0
1 0 1.1422754557115389 0.91835 1.08165
2 0 1.1422754557115389 1.08165 0.91835
ITEM: TIMESTEP
21000
ITEM: NUMBER OF ATOMS
3
ITEM: BOX BOUNDS pp pp pp
0 2
0 2
0 2
ITEM: ATOMS id type x y z
0 1 1.2205105182451206 1.0 1.0
1 0 1.1627759562147122 0.91835 1.08165
2 0 1.1627759562147122 1.08165 0.91835
ITEM: TIMESTEP
22000
ITEM: NUMBER OF ATOMS
3
ITEM: BOX BOUNDS pp pp pp
0 2
0 2
0 2
ITEM: ATOMS id type x y z
0 1 1.24201102002408 1.0 1.0
1 0 1.1842764568006259 0.91835 1.08165
2 0 1.1842764568006259 1.08165 0.91835
ITEM: TIMESTEP
23000
ITEM: NUMBER OF ATOMS
3
ITEM: BOX BOUNDS pp pp pp
0 2
0 2
0 2
ITEM: ATOMS id type x y z
0 1 1.2645115218857796 1.0 1.0
1 0 1.20677695746928 0.91835 1.08165
2 0 1.20677695746928 1.08165 0.91835
ITEM: TIMESTEP
24000
ITEM: NUMBER OF ATOMS
3
ITEM: BOX BOUNDS pp pp pp
0 2
0 2
0 2
ITEM: ATOMS id type x y z
0 1 1.2880120238302197 1.0 1.0
1 0 1.2302774582206744 0.91835 1.08165
2 0 1.2302774582206744 1.08165 0.91835
ITEM: TIMESTEP
25000
ITEM: NUMBER OF ATOMS
3
ITEM: BOX BOUNDS pp pp pp
0 2
0 2
0 2
ITEM: ATOMS id type x y z
0 1 1.3125125258574002 1.0 1.0
1 0 1.2547779590548092 0.91835 1.08165
2 0 1.2547779590548092 1.08165 0.91835
ITEM: TIMESTEP
26000
ITEM: NUMBER OF ATOMS
3
ITEM: BOX BOUNDS pp pp pp
0 2
0 2
0 2
ITEM: ATOMS id type x y z
0 1 1.338013027967321 1.0 1.0
1 0 1.2802784599716843 0.91835 1.08165
2 0 1.2802784599716843 1.08165 0.91835
ITEM: TIMESTEP
27000
ITEM: NUMBER OF ATOMS
3
ITEM: BOX BOUNDS pp pp pp
0 2
0 2
0 2
ITEM: ATOMS id type x y z
0 1 1.3645135301599822 1.0 1.0
1 0 1.3067789609712999 0.91835 1.08165
2 0 1.3067789609712999 1.08165 0.91835
ITEM: TIMESTEP
28000
ITEM: NUMBER OF ATOMS
3
ITEM: BOX BOUNDS pp pp pp
0 2
0 2
0 2
ITEM: ATOMS id type x y z
0 1 1.3920140324353838 1.0 1.0
1 0 1.3342794620536558 0.91835 1.08165
2 0 1.3342794620536558 1.08165 0.91835
ITEM: TIMESTEP
29000
ITEM: NUMBER OF ATOMS
3
ITEM: BOX BOUNDS pp pp pp
0 2
0 2
0 2
ITEM: ATOMS id type x y z
0 1 1.4205145347935257 1.0 1.0
1 0 1.362779963218752 0.91835 1.08165
2 0 1.362779963218752 1.08165 0.91835
ITEM: TIMESTEP
30000
ITEM: NUMBER OF ATOMS
3
ITEM: BOX BOUNDS pp pp pp
0 2
0 2
0 2
ITEM: ATOMS id type x y z
0 1 1.450015037234408 1.0 1.0
1 0 1.3922804644665887 0.91835 1.08165
2 0 1.3922804644665887 1.08165 0.91835
ITEM: TIMESTEP
31000
ITEM: NUMBER OF ATOMS
3
ITEM: BOX BOUNDS pp pp pp
0 2
0 2
0 2
ITEM: ATOMS id type x y z
0 1 1.4805155397580307 1.0 1.0
1 0 1.4227809657971657 0.91835 1.08165
2 0 1.4227809657971657 1.08165 0.91835
ITEM: TIMESTEP
32000
ITEM: NUMBER OF ATOMS
3
ITEM: BOX BOUNDS pp pp pp
0 2
0 2
0 2
ITEM: ATOMS id type x y z
0 1 1.5120160423643938 1.0 1.0
1 0 1.4542814672104831 0.91835 1.08165
2 0 1.4542814672104831 1.08165 0.91835
ITEM: TIMESTEP
33000
ITEM: NUMBER OF ATOMS
3
ITEM: BOX BOUNDS pp pp pp
0 2
0 2
0 2
ITEM: ATOMS id type x y z
0 1 1.5445165450534972 1.0 1.0
1 0 1.486781968706541 0.91835 1.08165
2 0 1.486781968706541 1.08165 0.91835
ITEM: TIMESTEP
34000
ITEM: NUMBER OF ATOMS
3
ITEM: BOX BOUNDS pp pp pp
0 2
0 2
0 2
ITEM: ATOMS id type x y z
0 1 1.578017047825341 1.0 1.0
1 0 1.520282470285339 0.91835 1.08165
2 0 1.520282470285339 1.08165 0.91835
ITEM: TIMESTEP
35000
ITEM: NUMBER OF ATOMS
3
ITEM: BOX BOUNDS pp pp pp
0 2
0 2
0 2
ITEM: ATOMS id type x y z
0 1 1.6125175506799252 1.0 1.0
1 0 1.5547829719468775 0.91835 1.08165
2 0 1.5547829719468775 1.08165 0.91835
ITEM: TIMESTEP
36000
ITEM: NUMBER OF ATOMS
3
ITEM: BOX BOUNDS pp pp pp
0 2
0 2
0 2
ITEM: ATOMS id type x y z
0 1 1.6480180536172497 1.0 1.0
1 0 1.5902834736911564 0.91835 1.08165
2 0 1.5902834736911564 1.08165 0.91835
ITEM: TIMESTEP
37000
ITEM: NUMBER OF ATOMS
3
ITEM: BOX BOUNDS pp pp pp
0 2
0 2
0 2
ITEM: ATOMS id type x y z
0 1 1.6845185566373146 1.0 1.0
1 0 1.6267839755181757 0.91835 1.08165
2 0 1.6267839755181757 1.08165 0.91835
ITEM: TIMESTEP
38000
ITEM: NUMBER OF ATOMS
3
ITEM: BOX BOUNDS pp pp pp
0 2
0 2
0 2
ITEM: ATOMS id type x y z
0 1 1.72201905974012 1.0 1.0
1 0 1.6642844774279353 0.91835 1.08165
2 0 1.6642844774279353 1.08165 0.91835
ITEM: TIMESTEP
39000
ITEM: NUMBER OF ATOMS
3
ITEM: BOX BOUNDS pp pp pp
0 2
0 2
0 2
ITEM: ATOMS id type x y z
0 1 1.7605195629256656 1.0 1.0
1 0 1.7027849794204353 0.91835 1.08165
2 0 1.7027849794204353 1.08165 0.91835
ITEM: TIMESTEP
40000
ITEM: NUMBER OF ATOMS
3
ITEM: BOX BOUNDS pp pp pp
0 2
0 2
0 2
ITEM: ATOMS id type x y z
0 1 1.8000200661939516 1.0 1.0
1 0 1.7422854814956756 0.91835 1.08165
2 0 1.7422854814956756 1.08165 0.91835
ITEM: TIMESTEP
41000
ITEM: NUMBER OF ATOMS
3
ITEM: BOX BOUNDS pp pp pp
0 2
0 2
0 2
ITEM: ATOMS id type x y z
0 1 1.840520569544978 1.0 1.0
1 0 1.7827859836536564 0.91835 1.08165
2 0 1.7827859836536564 1.08165 0.91835
ITEM: TIMESTEP
42000
ITEM: NUMBER OF ATOMS
3
ITEM: BOX BOUNDS pp pp pp
0 2
0 2
0 2
ITEM: ATOMS id type x y z
0 1 1.8820210729787448 1.0 1.0
1 0 1.8242864858943775 0.91835 1.08165
2 0 1.8242864858943775 1.08165 0.91835
ITEM: TIMESTEP
43000
ITEM: NUMBER OF ATOMS
3
ITEM: BOX BOUNDS pp pp pp
0 2
0 2
0 2
ITEM: ATOMS id type x y z
0 1 1.924521576495252 1.0 1.0
1 0 1.866786988217839 0.91835 1.08165
2 0 1.866786988217839 1.08165 0.91835
ITEM: TIMESTEP
44000
ITEM: NUMBER OF ATOMS
3
ITEM: BOX BOUNDS pp pp pp
0 2
0 2
0 2
ITEM: ATOMS id type x y z
0 1 1.9680220800944994 1.0 1.0
1 0 1.9102874906240408 0.91835 1.08165
2 0 1.9102874906240408 1.08165 0.91835
ITEM: TIMESTEP
45000
ITEM: NUMBER OF ATOMS
3
ITEM: BOX BOUNDS pp pp pp
0 2
0 2
0 2
ITEM: ATOMS id type x y z
0 1 2.0125225837764873 1.0 1.0
1 0 1.954787993112983 0.91835 1.08165
2 0 1.954787993112983 1.08165 0.91835
ITEM: TIMESTEP
46000
ITEM: NUMBER OF ATOMS
3
ITEM: BOX BOUNDS pp pp pp
0 2
0 2
0 2
ITEM: ATOMS id type x y z
0 1 2.0580230875412155 1.0 1.0
1 0 2.000288495684667 0.91835 1.08165
2 0 2.000288495684667 1.08165 0.91835
ITEM: TIMESTEP
47000
ITEM: NUMBER OF ATOMS
3
ITEM: BOX BOUNDS pp pp pp
0 2
0 2
0 2
ITEM: ATOMS id type x y z
0 1 2.104523591388684 1.0 1.0
1 0 2.046788998339312 0.91835 1.08165
2 0 2.046788998339312 1.08165 0.91835
ITEM: TIMESTEP
48000
ITEM: NUMBER OF ATOMS
3
ITEM: BOX BOUNDS pp pp pp
0 2
0 2
0 2
ITEM: ATOMS id type x y z
0 1 2.152024095318893 1.0 1.0
1 0 2.0942895010766973 0.91835 1.08165
2 0 2.0942895010766973 1.08165 0.91835
ITEM: TIMESTEP
49000
ITEM: NUMBER OF ATOMS
3
ITEM: BOX BOUNDS pp pp pp
0 2
0 2
0 2
ITEM: ATOMS id type x y z
0 1 2.2005245993318425 1.0 1.0
1 0 2.142790003896823 0.91835 1.08165
2 0 2.142790003896823 1.08165 0.91835
ITEM: TIMESTEP
50000
ITEM: NUMBER OF ATOMS
3
ITEM: BOX BOUNDS pp pp pp
0 2
0 2
0 2
ITEM: ATOMS id type x y z
0 1 2.2500251034275323 1.0 1.0
1 0 2.192290506799689 0.91835 1.08165
2 0 2.192290506799689 1.08165 0.91835
